! TOUCHSTONE file generated by CST MICROWAVE STUDIO
! Date and time: Mon Aug  5 20:22:36 2024
! Project name: bowtieslot_array_result_MDMB.cst
! Parameters = {Le=90; Ls=2; Lu=9; W=60; Wbh=7; Wbl=0.5; ar=0.3; c1=6.5548; c10=-0.70356; c11=-2.6871; c12=-3.1742; c13=3.8877; c14=3.5377; c15=3.8577; c16=3.0014; c17=1.2156; c18=0.15159; c19=-6.8268; c2=-3.6807; c20=-5.8496; c21=-1.0114; c22=3.8286; c23=3.2249; c24=3.5308; c25=3.4718; c26=-0.75795; c27=0.16463; c28=-3.3613; c29=-2.5459; c3=1.9101; c30=0.27916; c31=3.5516; c32=3.218; c33=3.8383; c34=2.4994; c35=2.7462; c36=-4.584; c37=-3.7859; c38=2.5601; c39=1.6062; c4=2.9467; c40=2.8106; c41=3.8763; c42=3.5174; c43=3.2358; c44=2.0962; c45=-2.8467; c46=1.2216; c47=0.53816; c48=-1.2474; c49=-0.67975; c5=3.9058; c50=-0.18569; c6=3.8773; c7=3.4176; c8=-2.5263; c9=1.9096; ct=0.035; d=1.5; h=2.15; lamda=60; msline=2.16; rar=0.5; rvia=0.2; rvia2=0.8; subh=1.52; tap=0.9}
! Header version: 2024
! Port assignment regex: !\s*Touchstone port\s*([0-9]+)\s*=\s*(CST MWS port|CST DES external port|CST DES block port)\s*(.+)\s* \(\"(.*)\"\)(\s*mode\s*([0-9]+))?.*
! Touchstone port assignment:
! Touchstone port 1 = CST MWS port 1 ("")
! Touchstone port 2 = CST MWS port 2 ("")
! Touchstone port 3 = CST MWS port 3 ("")
! Touchstone port 4 = CST MWS port 4 ("")
! Touchstone port 5 = CST MWS port 5 ("")
# GHz S MA R 50
4                    0.906691752       97.978903    0.00123513343     -55.0957887   0.000186365662      -84.157005   3.09618136e-05     -117.462095
                  5.90466364e-06     -154.249448
                   0.00123513343     -55.0957887      0.916273531      106.939527    0.00108179578     -38.1567188   0.000187386372     -74.4661902
                  3.49763872e-05     -111.974923
                  0.000186365662      -84.157005    0.00108179578     -38.1567188      0.933541544      126.874327    0.00116397047     -36.2774812
                  0.000223503056     -76.1425204
                  3.09618136e-05     -117.462095   0.000187386372     -74.4661902    0.00116397047     -36.2774812      0.928327979      120.743078
                   0.00129288755      -42.301535
                  5.90466364e-06     -154.249448   3.49763872e-05     -111.974923   0.000223503056     -76.1425204    0.00129288755      -42.301535
                     0.921711888      115.096112
4.02                 0.904901311      93.6108153    0.00122816298     -60.6632809   0.000186388531     -90.0175101   3.13753362e-05     -124.966185
                  6.00039364e-06     -160.864639
                   0.00122816298     -60.6632809      0.914516832      102.871938    0.00105604632     -42.3304341   0.000187147114     -80.3189051
                  3.55475622e-05     -117.863681
                  0.000186388531     -90.0175101    0.00105604632     -42.3304341       0.93224884       123.41669    0.00116650278     -41.0955916
                  0.000225850002      -82.562283
                  3.13753362e-05     -124.966185   0.000187147114     -80.3189051    0.00116650278     -41.0955916      0.926775282      117.098523
                   0.00129468003     -47.2160249
                  6.00039364e-06     -160.864639   3.55475622e-05     -117.863681   0.000225850002      -82.562283    0.00129468003     -47.2160249
                     0.919932939       111.28288
4.04                 0.902889455      89.2129893    0.00121872641     -66.3742257   0.000186160027     -96.2430537   3.17094731e-05     -132.991553
                  6.09649972e-06     -168.360112
                   0.00121872641     -66.3742257      0.912589498      98.7744797    0.00103345521     -46.6988761   0.000186845359     -86.4799364
                  3.60841908e-05      -124.38623
                  0.000186160027     -96.2430537    0.00103345521     -46.6988761      0.930813238      119.942924    0.00116867059     -45.9856453
                   0.00022804844     -89.2761325
                  3.17094731e-05     -132.991553   0.000186845359     -86.4799364    0.00116867059     -45.9856453      0.925100718      113.436806
                   0.00129549147     -52.2578324
                  6.09649972e-06     -168.360112   3.60841908e-05      -124.38623    0.00022804844     -89.2761325    0.00129549147     -52.2578324
                     0.918031556      107.447115
4.06                 0.900666771      84.7856516    0.00120682503     -72.2210033   0.000185633082     -102.847783   3.19318638e-05     -141.547753
                  6.18608821e-06     -176.877255
                   0.00120682503     -72.2210033      0.910492887      94.6471827    0.00101413032     -51.2601561   0.000186480744     -92.9548346
                  3.65558233e-05     -131.616627
                  0.000185633082     -102.847783    0.00101413032     -51.2601561      0.929234787      116.452451    0.00117044955     -50.9447768
                  0.000230052161     -96.2777831
                  3.19318638e-05     -141.547753   0.000186480744     -92.9548346    0.00117044955     -50.9447768      0.923301031      109.757042
                   0.00129527241     -57.4239782
                  6.18608821e-06     -176.877255   3.65558233e-05     -131.616627   0.000230052161     -96.2777831    0.00129527241     -57.4239782
                      0.91600279      103.588217
4.08                 0.898243981       80.328872    0.00119251652     -78.1955857   0.000184760531     -109.841473   3.20079544e-05     -150.627958
                  6.25796423e-06      173.440469
                   0.00119251652     -78.1955857      0.908228323       90.489931   0.000998178184      -56.009872   0.000186055292     -99.7452862
                  3.69222503e-05     -139.626512
                  0.000184760531     -109.841473   0.000998178184      -56.009872      0.927512987       112.94453    0.00117181829     -55.9701942
                  0.000231815722     -103.555495
                  3.20079544e-05     -150.627958   0.000186055292     -99.7452862    0.00117181829     -55.9701942      0.921372393      106.058191
                   0.00129398506     -62.7108911
                  6.25796423e-06      173.440469   3.69222503e-05     -139.626512   0.000231815722     -103.555495    0.00129398506     -62.7108911
                     0.913841274      99.7054271
4.1                  0.895631725       75.842564    0.00117591458      -84.289924   0.000183498849     -117.228037   3.19050688e-05       -160.2048
                  6.29572176e-06      162.470237
                   0.00117591458      -84.289924      0.905796991       86.302457   0.000985698726     -60.9410626   0.000185573964     -106.848256
                  3.71340489e-05     -148.476942
                  0.000183498849     -117.228037   0.000985698726     -60.9410626      0.925646676      109.418253    0.00117275866     -61.0592614
                  0.000233297983     -111.091719
                  3.19050688e-05       -160.2048   0.000185573964     -106.848256    0.00117275866     -61.0592614      0.919310339      102.339057
                   0.00129160491     -68.1144859
                  6.29572176e-06      162.470237   3.71340489e-05     -148.476942   0.000233297983     -111.091719    0.00129160491     -68.1144859
                     0.911541171      95.7978221
4.12                  0.89284035      71.3264873    0.00115718509     -90.4963605   0.000181812978     -125.004026   3.15979551e-05     -170.228044
                  6.27843584e-06       150.14749
                   0.00115718509     -90.4963605       0.90319983      82.0843369    0.00097677955     -66.0443509   0.000185045121     -114.255196
                  3.71364384e-05     -158.207044
                  0.000181812978     -125.004026    0.00097677955     -66.0443509       0.92363392      105.872542    0.00117325597     -66.2095848
                  0.000234466073     -118.863092
                  3.15979551e-05     -170.228044   0.000185045121     -114.255196    0.00117325597     -66.2095848      0.917109693      98.5982798
                    0.0012881218     -73.6302669
                  6.27843584e-06       150.14749   3.71364384e-05     -158.207044   0.000234466073     -118.863092     0.0012881218     -73.6302669
                     0.909096109      91.8643127
4.14                   0.8898797      66.7802523     0.0011365392     -96.8080371   0.000179681863     -133.157316   3.10746997e-05      179.374564
                   6.1847552e-06      136.514367
                    0.0011365392     -96.8080371      0.900437422      77.8349886   0.000971489835     -71.3083034   0.000184480788     -121.951411
                  3.68780244e-05     -168.820621
                  0.000179681863     -133.157316   0.000971489835     -71.3083034      0.921471887      102.306143    0.00117329905     -71.4191028
                  0.000235299312      -126.84086
                  3.10746997e-05      179.374564   0.000184480788     -121.951411    0.00117329905     -71.4191028      0.914764488      94.8343394
                   0.00128354045     -79.2534561
                   6.1847552e-06      136.514367   3.68780244e-05     -168.820621   0.000235299312      -126.84086    0.00128354045     -79.2534561
                     0.906499121      87.9036403
4.16                 0.886758918      62.2033273    0.00111422369     -103.219277   0.000177103917      -141.66618   3.03411802e-05      168.692555
                  6.00115691e-06      121.760107
                   0.00111422369     -103.219277      0.897509879        73.55367   0.000969874156     -76.7200072   0.000183896628     -129.915704
                  3.63245799e-05      179.726205
                  0.000177103917      -141.66618   0.000969874156     -76.7200072      0.919156731      98.7176175    0.00117288013     -76.6861757
                  0.000235792446     -134.991768
                  3.03411802e-05      168.692555   0.000183896628     -129.915704    0.00117288013     -76.6861757      0.912267891      91.0455501
                   0.00127788023     -84.9791427
                  6.00115691e-06      121.760107   3.63245799e-05      179.726205   0.000235792446     -134.991768    0.00127788023     -84.9791427
                     0.903742566      83.9143749
4.18                 0.883486253       57.595047    0.00109050981     -109.725917   0.000174101333     -150.498984   2.94222127e-05       157.82461
                  5.73125509e-06      106.222645
                   0.00109050981     -109.725917      0.894416729      69.2394789   0.000971946454     -82.2658396   0.000183311541     -138.120406
                  3.54747743e-05      167.531738
                  0.000174101333     -150.498984   0.000971946454     -82.2658396      0.916683453      95.1053425    0.00117199466     -82.0096764
                  0.000235957588     -143.279375
                  2.94222127e-05       157.82461   0.000183311541     -138.120406    0.00117199466     -82.0096764      0.909612111      87.2300597
                   0.00127117426     -90.8024498
                  5.73125509e-06      106.222645   3.54747743e-05      167.531738   0.000235957588     -143.279375    0.00127117426     -90.8024498
                     0.900818058      79.8949138
4.2                  0.880068875      52.9546229    0.00106568138     -116.325572    0.00017072202     -159.614649   2.83585633e-05      146.868862
                  5.39908331e-06       90.333607
                   0.00106568138     -116.325572      0.891156795      64.8913537   0.000977684292     -87.9323656   0.000182746852     -146.531874
                  3.43711025e-05       154.74577
                   0.00017072202     -159.614649   0.000977684292     -87.9323656      0.914045762      91.4675014    0.00117064096     -87.3890779
                  0.000235824397     -151.665697
                  2.83585633e-05      146.868862   0.000182746852     -146.531874    0.00117064096     -87.3890779      0.906788308      83.3858472
                   0.00126346779      -96.718714
                  5.39908331e-06       90.333607   3.43711025e-05       154.74577   0.000235824397     -151.665697    0.00126346779      -96.718714
                     0.897716378      75.8434796
4.22                   0.8765127      48.2811552    0.00104002323     -123.017835   0.000167038212     -168.963939   2.72006138e-05      135.914091
                  5.04181208e-06      74.5294045
                   0.00104002323     -123.017835      0.887728072      60.5080758   0.000987023405     -93.7072826   0.000182225141     -155.111515
                  3.30987041e-05      141.556633
                  0.000167038212     -168.963939   0.000987023405     -93.7072826      0.911235924      87.8020789    0.00116881974     -92.8245398
                  0.000235438381     -160.113013
                  2.72006138e-05      135.914091   0.000182225141     -155.111515    0.00116881974     -92.8245398      0.903786492      79.5107209
                    0.0012548159     -102.723672
                  5.04181208e-06      74.5294045   3.30987041e-05      141.556633   0.000235438381     -160.113013     0.0012548159     -102.723672
                     0.894427378      71.7581198
4.24                 0.872822215       43.573646    0.00101381076       -129.8044   0.000163141473     -178.491502   2.60007359e-05      125.033809
                   4.6963087e-06       59.177364
                   0.00101381076       -129.8044      0.884127603      56.0882725   0.000999852353      -99.580312   0.000181768816     -163.817283
                  3.17698425e-05      128.172581
                  0.000163141473     -178.491502   0.000999852353      -99.580312      0.908244597      84.1068553    0.00116653351     -98.3169896
                  0.000234857551     -168.585647
                  2.60007359e-05      125.033809   0.000181768816     -163.817283    0.00116653351     -98.3169896      0.900595413      75.6023157
                   0.00124528079     -108.813652
                   4.6963087e-06       59.177364   3.17698425e-05      128.172581   0.000234857551     -168.585647    0.00124528079     -108.813652
                     0.890939875      67.6367056
4.26                  0.86900031      38.8310138   0.000987301256     -136.689128    0.00015913467      171.861559    2.4806599e-05      114.283947
                  4.38864772e-06      44.5447426
                  0.000987301256     -136.689128      0.880351341      51.6304209    0.00101600693     -105.543947   0.000181398634     -172.605578
                  3.04998054e-05      114.803578
                   0.00015913467      171.861559    0.00101600693     -105.543947      0.905060649      80.3793992    0.00116378594     -103.868203
                  0.000234147985     -177.051558
                   2.4806599e-05      114.283947   0.000181398634     -172.605578    0.00116378594     -103.868203      0.897202434      71.6580904
                   0.00123492858     -114.985759
                  4.38864772e-06      44.5447426   3.04998054e-05      114.803578   0.000234147985     -177.051558    0.00123492858     -114.985759
                     0.887241536      63.4769313
4.28                 0.865048116      34.0521084   0.000960727227      -143.67806    0.00015512233      162.154832   2.36568152e-05      103.703585
                  4.13113322e-06      30.8007086
                  0.000960727227      -143.67806      0.876394008      47.1328531    0.00103526382     -111.593979   0.000181132372      178.566648
                  2.93844174e-05      101.646702
                   0.00015512233      162.154832    0.00103526382     -111.593979      0.901670956        76.61706    0.00116058108     -109.480877
                  0.000233379021      174.516402
                  2.36568152e-05      103.703585   0.000181132372      178.566648    0.00116058108     -109.480877        0.8935934      67.6753251
                   0.00122382604     -121.238065
                  4.13113322e-06      30.8007086   2.93844174e-05      101.646702   0.000233379021      174.516402    0.00122382604     -121.238065
                     0.883318739      59.2763142
4.3                  0.860964825       29.235726   0.000934291916     -150.779395    0.00015120116      152.445749   2.25791961e-05      93.3174687
                  3.92498312e-06      18.0296894
                  0.000934291916     -150.779395      0.872248934      42.5937609    0.00105733307     -117.729758   0.000180983853      169.739782
                   2.8486979e-05      88.8744373
                   0.00015120116      152.445749    0.00105733307     -117.729758      0.898060182      72.8169593    0.00115692258     -115.158707
                  0.000232618786      166.139628
                  2.25791961e-05      93.3174687   0.000180983853      169.739782    0.00115692258     -115.158707      0.889752478      63.6511175
                   0.00121203727     -127.569779
                  3.92498312e-06      18.0296894    2.8486979e-05      88.8744373   0.000232618786      166.139628    0.00121203727     -127.569779
                     0.879156425      55.0321932
4.32                  0.85674752      24.3806248   0.000908166821     -158.003442    0.00014745238         142.787   2.15910788e-05      83.1390202
                  3.76483977e-06      6.24559091
                  0.000908166821     -158.003442      0.867907887      38.0112018    0.00108184888     -123.954157   0.000180962448      160.949642
                  2.78363722e-05      76.6243071
                   0.00014745238         142.787    0.00108184888     -123.954157      0.894210521       68.975982    0.00115281285     -120.906456
                  0.000231930561      157.833305
                  2.15910788e-05      83.1390202   0.000180962448      160.949642    0.00115281285     -120.906456      0.885661991      59.5823789
                   0.00119962061     -133.981428
                  3.76483977e-06      6.24559091   2.78363722e-05      76.6243071   0.000231930561      157.833305    0.00119962061     -133.981428
                     0.874737922      50.7417291
4.34                  0.85239098      19.4855398   0.000882491062     -165.362565    0.00014393692      133.224356   2.07008885e-05      73.1730059
                  3.64262305e-06     -4.59358763
                  0.000882491062     -165.362565      0.863360878      33.3831048    0.00110835873     -130.273255   0.000181073095      152.225954
                  2.74332168e-05      64.9905833
                   0.00014393692      133.224356    0.00110835873     -130.273255      0.890101414      65.0907653    0.00114825217     -126.730028
                   0.00023137028      149.606321
                  2.07008885e-05      73.1730059   0.000181073095      152.225954    0.00114825217     -126.730028      0.881302215      55.4658299
                   0.00118662582      -140.47502
                  3.64262305e-06     -4.59358763   2.74332168e-05      64.9905833    0.00023137028      149.606321    0.00118662582      -140.47502
                     0.870044742      46.4019033
4.36                 0.847887469      14.5491966   0.000857372272     -172.871124   0.000140693759      123.795059   1.99101906e-05      63.4174736
                  3.54997336e-06      -14.570092
                  0.000857372272     -172.871124      0.858595934      28.7072762    0.00113631119     -136.695739   0.000181316782      143.591316
                   2.7259422e-05      54.0205419
                  0.000140693759      123.795059    0.00113631119     -136.695739       0.88570922      61.1576871     0.0011432378     -132.636542
                  0.000230985174      141.461467
                  1.99101906e-05      63.4174736   0.000181316782      143.591316     0.0011432378     -132.636542      0.876651155      51.2979946
                   0.00117309178     -147.054217
                  3.54997336e-06      -14.570092    2.7259422e-05      54.0205419   0.000230985174      141.461467    0.00117309178     -147.054217
                     0.865056349      42.0095165
4.38                 0.843226505      9.57032326   0.000832888778      179.454585   0.000137741026      114.526809   1.92157302e-05      53.8649721
                  3.47946467e-06     -23.7912101
                  0.000832888778      179.454585      0.853598844      23.9814042    0.00116504367     -143.232067   0.000181691367      135.060687
                  2.72874167e-05      43.7167794
                  0.000137741026      114.526809    0.00116504367     -143.232067      0.881006842      57.1728529     0.0011377631     -138.634417
                  0.000230813422      133.395853
                  1.92157302e-05      53.8649721   0.000181691367      135.060687     0.0011377631     -138.634417      0.871684286      47.0751949
                   0.00115904477     -153.724506
                  3.47946467e-06     -23.7912101   2.72874167e-05      43.7167794   0.000230813422      133.395853    0.00115904477     -153.724506
                     0.859749882      37.5611874
4.4                  0.838394583      4.54766063   0.000809092809      171.596387   0.000135079041      105.437373   1.86111968e-05      44.5032393
                  3.42502338e-06     -32.3767192
                  0.000809092809      171.596387      0.848352847      19.2030631    0.00119377211      -149.89341   0.000182192607      126.641349
                  2.74871348e-05      34.0446279
                  0.000135079041      105.437373    0.00119377211      -149.89341      0.875963291      53.1320804    0.00113181663     -144.733456
                  0.000230884556      125.401449
                  1.86111968e-05      44.5032393   0.000182192607      126.641349    0.00113181663     -144.733456      0.866374248      42.7935427
                   0.00114449739     -160.493391
                  3.42502338e-06     -32.3767192   2.74871348e-05      34.0446279   0.000230884556      125.401449    0.00114449739     -160.493391
                     0.854099832      33.0533499
4.42                 0.833374858    -0.520031448   0.000786014594      163.534288   0.000132694418      96.5347673    1.8088622e-05      35.3155854
                  3.38193123e-06     -40.4502006
                  0.000786014594      163.534288      0.842838277      14.3697158    0.00122158593      -156.69042   0.000182815247      118.333261
                  2.78303539e-05      24.9420111
                  0.000132694418      96.5347673    0.00122158593      -156.69042      0.870543185       49.030883    0.00112538119     -150.944955
                  0.000231220351      117.465705
                   1.8088622e-05      35.3155854   0.000182815247      118.333261    0.00112538119     -150.944955      0.860690497      38.4489316
                   0.00112944825     -167.370603
                  3.38193123e-06     -40.4502006   2.78303539e-05      24.9420111   0.000231220351      117.465705    0.00112944825     -167.370603
                     0.848077662      28.4822498
4.44                  0.82814677     -5.63397141   0.000763667257      155.246549   0.000130564431      87.8179035   1.76394202e-05      26.2811496
                  3.34665916e-06     -48.1342086
                  0.000763667257      155.246549      0.837032122      9.47871379     0.0012474525     -163.631887   0.000183554073       110.12969
                  2.82928294e-05      16.3290509
                  0.000130564431      87.8179035     0.0012474525     -163.631887      0.864706161      44.8644502    0.00111843297     -157.281817
                  0.000231835948       109.57218
                  1.76394202e-05      26.2811496   0.000183554073       110.12969    0.00111843297     -157.281817      0.854598889      34.0370263
                   0.00111388245     -174.368349
                  3.34665916e-06     -48.1342086   2.82928294e-05      16.3290509   0.000231835948       109.57218    0.00111388245     -174.368349
                     0.841651345      23.8439402
4.46                 0.822685584     -10.7953587   0.000742052519      146.709797   0.000128661102      79.2775687   1.72551251e-05      17.3751317
                  3.31666713e-06     -55.5485827
                  0.000742052519      146.709797      0.830907501      4.52729426    0.00127023591     -170.723359   0.000184404863      102.018005
                  2.88549307e-05      8.11574271
                  0.000128661102      79.2775687    0.00127023591     -170.723359      0.858406188      40.6276269    0.00111094061       -163.7587
                   0.00023274102      101.701169
                  1.72551251e-05      17.3751317   0.000184404863      102.018005    0.00111094061       -163.7587      0.848061192      29.5532509
                   0.00109777308      178.498389
                  3.31666713e-06     -55.5485827   2.88549307e-05      8.11574271    0.00023274102      101.701169    0.00109777308      178.498389
                     0.834784823      19.1342752
4.48                 0.816961841     -16.0053824   0.000721167272      137.899177   0.000126954712      70.8976018   1.69278914e-05      8.56903593
                  3.29023482e-06     -62.8110484
                  0.000721167272      137.899177      0.824433023    -0.487426983    0.00128873456     -177.965876   0.000185365227      93.9805395
                  2.95014091e-05      0.20713584
                  0.000126954712      70.8976018    0.00128873456     -177.965876       0.85159076      36.3148883    0.00110286438     -170.392194
                  0.000233940843      93.8303048
                  1.69278914e-05      8.56903593   0.000185365227      93.9805395    0.00110286438     -170.392194      0.841034507      24.9927742
                   0.00108108379      171.211478
                  3.29023482e-06     -62.8110484   2.95014091e-05      0.20713584   0.000233940843      93.8303048    0.00108108379      171.211478
                      0.82743735      14.3489017
4.5                  0.810940683     -21.2652384   0.000701011134      128.788591   0.000125416642      62.6561292   1.66508304e-05    -0.169083124
                  3.26635225e-06     -70.0394041
                  0.000701011134      128.788591      0.817572007     -5.56846761    0.00130173972      174.645029   0.000186435333      85.9954529
                  3.02207378e-05     -7.49381457
                  0.000125416642      62.6561292    0.00130173972      174.645029      0.844199948      31.9203137    0.00109415534     -177.201035
                  0.000235437196       85.935143
                  1.66508304e-05    -0.169083124   0.000186435333      85.9954529    0.00109415534     -177.201035      0.833470579      20.3504929
                   0.00106377284      163.749174
                  3.26635225e-06     -70.0394041   3.02207378e-05     -7.49381457   0.000235437196       85.935143    0.00106377284      163.749174
                     0.819562694      9.48324886
4.52                 0.804581021     -26.5761544   0.000681595099      119.351054   0.000124021607      54.5267652   1.64182371e-05     -8.87439743
                  3.24468567e-06     -77.3548104
                  0.000681595099      119.351054      0.810281516     -10.7189974    0.00130811364      167.119844   0.000187618568      78.0375491
                  3.10042752e-05     -15.0852464
                  0.000124021607      54.5267652    0.00130811364      167.119844      0.836165267      27.4375555    0.00108475478       175.79362
                  0.000237229031      77.9897386
                  1.64182371e-05     -8.87439743   0.000187618568      78.0375491    0.00108475478       175.79362      0.825314967      15.6210113
                   0.00104579893      156.085529
                  3.24468567e-06     -77.3548104   3.10042752e-05     -15.0852464   0.000237229031      77.9897386    0.00104579893      156.085529
                     0.811108178       4.5325149
4.54                 0.797834505     -31.9394263   0.000662951343      109.559206    0.00012274939      46.4797168   1.62257619e-05     -17.5851295
                  3.22563472e-06     -84.8858626
                  0.000662951343      109.559206      0.802511172     -15.9423645    0.00130687947      159.474923   0.000188922152      70.0790414
                  3.18453636e-05     -22.6667247
                   0.00012274939      46.4797168    0.00130687947      159.474923      0.827408345      22.8598062    0.00107459382      168.567849
                  0.000239312939      69.9672385
                  1.62257619e-05     -17.5851295   0.000188922152      70.0790414    0.00107459382      168.567849      0.816506051      10.7986171
                   0.00102712955      148.189651
                  3.22563472e-06     -84.8858626   3.18453636e-05     -22.6667247   0.000239312939      69.9672385    0.00102712955      148.189651
                     0.802013512    -0.508349677
4.56                 0.790644238     -37.3564666   0.000645144113      99.3860418   0.000121586272      38.4827747   1.60705657e-05     -26.3424327
                  3.21050712e-06      -92.773143
                  0.000645144113      99.3860418      0.794201687     -21.2421321    0.00129731007      151.731536   0.000190357765      62.0902683
                  3.27383819e-05     -30.3404671
                  0.000121586272      38.4827747    0.00129731007      151.731536      0.817839326      18.1797615    0.00106359359      161.094526
                  0.000241683405      61.8405183
                  1.60705657e-05     -26.3424327   0.000190357765      62.0902683    0.00106359359      161.094526      0.806973825      5.87725404
                   0.00100775267      140.024769
                  3.21050712e-06      -92.773143   3.27383819e-05     -30.3404671   0.000241683405      61.8405183    0.00100775267      140.024769
                     0.792209367     -5.64466159