! TOUCHSTONE file generated by CST MICROWAVE STUDIO
! Date and time: Mon Jun  3 18:39:44 2024
! Project name: bowtieslot_element.cst
! Parameters = {Le=90; Ls=2; Lu=9; W=60; Wbh=7; Wbl=0.5; ar=0.3; c1=0; c10=0; c2=0; c3=0; c4=0; c5=0; c6=0; c7=0; c8=0; c9=0; ct=0; d=1.5; h=2.15; lamda=60; msline=2.16; rar=0.5; rvia=0.2; subh=1.52; tap=0.9}
! Header version: 2024
! Port assignment regex: !\s*Touchstone port\s*([0-9]+)\s*=\s*(CST MWS port|CST DES external port|CST DES block port)\s*(.+)\s* \(\"(.*)\"\)(\s*mode\s*([0-9]+))?.*
! Touchstone port assignment:
! Touchstone port 1 = CST MWS port 1 ("")
! Touchstone port 2 = CST MWS port 2 ("")
! Touchstone port 3 = CST MWS port 3 ("")
! Touchstone port 4 = CST MWS port 4 ("")
! Touchstone port 5 = CST MWS port 5 ("")
! Touchstone port 6 = CST MWS port 6 ("")
! Touchstone port 7 = CST MWS port 7 ("")
! Touchstone port 8 = CST MWS port 8 ("")
! Touchstone port 9 = CST MWS port 9 ("")
! Touchstone port 10 = CST MWS port 10 ("")
! Touchstone port 11 = CST MWS port 11 ("")
# GHz S MA R 50
4.5                  0.154773107      87.7202892    0.00428981151      29.3828814    0.00636770002      -90.212032     0.0243474443      150.043522
                    0.0647863909      20.2280855      0.220430555     -94.6901667      0.217057228     -96.4152198     0.0637112573      20.5375758
                    0.0235141177      147.375402    0.00806771387     -128.774949      0.891242692      91.4022719
                   0.00428981151      29.3828814        0.6930901     -33.8162088      0.411295779      63.9236786      0.132475225     -177.861624
                    0.0442350389     -62.5115426     0.0137635013      66.9160394    0.00191608373       -107.8254    0.00284966174      45.3756666
                   0.00170066286     -67.5017782    0.00819779225     -179.094664    0.00332184895      82.1956808
                   0.00636770002      -90.212032      0.411295779      63.9236786      0.729637828      1.29617878      0.372503797      80.3525815
                     0.117305723     -159.655784     0.0417609329     -40.6420464    0.00463993335     -114.669741     0.0014814764      49.5275841
                  0.000977522782      165.993777    0.00161828913     -64.5735117    0.00707285251      15.4199872
                    0.0243474443      150.043522      0.132475225     -177.861624      0.372503797      80.3525815      0.744574763    -0.926170546
                     0.384540124      79.1935083      0.125765502     -160.169063     0.0117802141      107.600033    0.00681963867     -116.277935
                   0.00189769666      49.9778964    0.00275300196      40.8972767     0.0237339824     -123.182226
                    0.0647863909      20.2280855     0.0442350389     -62.5115426      0.117305723     -159.655784      0.384540124      79.1935083
                     0.737447985     -1.15683545      0.392208628      80.0956634     0.0332922803      -38.839411     0.0114375542      98.3923774
                   0.00520356936     -110.515121    0.00245757954     -125.140113      0.061787216      108.444892
                     0.220430555     -94.6901667     0.0137635013      66.9160394     0.0417609329     -40.6420464      0.125765502     -160.169063
                     0.392208628      80.0956634      0.774664171     -1.40206823     0.0893935525     -150.770754     0.0332626896     -36.6194911
                    0.0105114319      114.822459    0.00247013464     -174.581448      0.200288736     -4.72711074
                     0.217057228     -96.4152198    0.00191608373       -107.8254    0.00463993335     -114.669741     0.0117802141      107.600033
                    0.0332922803      -38.839411     0.0893935525     -150.770754       0.77613644      -1.4773284      0.394989834      80.4723131
                     0.120956518     -158.973222     0.0456245205     -61.4847866      0.199976866     -2.43547623
                    0.0637112573      20.5375758    0.00284966174      45.3756666     0.0014814764      49.5275841    0.00681963867     -116.277935
                    0.0114375542      98.3923774     0.0332626896     -36.6194911      0.394989834      80.4723131      0.742530631     -1.18816373
                     0.373079042      80.0756975      0.132361969     -178.079079     0.0613117811       113.89124
                    0.0235141177      147.375402    0.00170066286     -67.5017782   0.000977522782      165.993777    0.00189769666      49.9778964
                   0.00520356936     -110.515121     0.0105114319      114.822459      0.120956518     -158.973222      0.373079042      80.0756975
                     0.728906591      1.05616549      0.410915107      63.9175753     0.0210814067     -122.029506
                   0.00806771387     -128.774949    0.00819779225     -179.094664    0.00161828913     -64.5735117    0.00275300196      40.8972767
                   0.00245757954     -125.140113    0.00247013464     -174.581448     0.0456245205     -61.4847866      0.132361969     -178.079079
                     0.410915107      63.9175753      0.693598995     -33.6250401     0.0089111902    -0.976369016
                     0.891242692      91.4022719    0.00332184895      82.1956808    0.00707285251      15.4199872     0.0237339824     -123.182226
                     0.061787216      108.444892      0.200288736     -4.72711074      0.199976866     -2.43547623     0.0613117811       113.89124
                    0.0210814067     -122.029506     0.0089111902    -0.976369016      0.208873884     -44.7733713
4.51                 0.150878925      86.6625571    0.00430877411      28.4088027    0.00636843088     -91.5273523     0.0243473732      148.696948
                    0.0647445859      18.9010952      0.220306046     -95.9572425       0.21690332     -97.6863236     0.0636562868      19.1538723
                      0.02353761      146.010263    0.00805458046     -129.909903      0.891811038      90.5331672
                   0.00430877411      28.4088027      0.692592641     -34.8879234      0.410933753      62.8538538      0.132376474     -178.981691
                    0.0441779647     -63.6824737     0.0137350273      65.6755714    0.00189887159     -110.517095    0.00286444595      42.8928464
                   0.00170668158     -70.2123934    0.00822111433      178.431311    0.00331422571      81.1910175
                   0.00636843088     -91.5273523      0.410933753      62.8538538      0.729494863     0.235751074      0.372331843      79.3001122
                     0.117313699     -160.757951      0.041790903     -41.8341234    0.00467392098      -115.86864    0.00150978595      48.4602928
                  0.000977059926      164.548639    0.00162412853     -67.2837088    0.00709078689       14.312218
                    0.0243473732      148.696948      0.132376474     -178.981691      0.372331843      79.3001122      0.744384468     -1.98397373
                     0.384314656      78.1303837      0.125767331     -161.313212     0.0118508991      106.402832    0.00686792272     -117.823981
                   0.00192689105      48.6164482    0.00276621635      38.4293001     0.0237548017     -124.323894
                    0.0647445859      18.9010952     0.0441779647     -63.6824737      0.117313699     -160.757951      0.384314656      78.1303837
                     0.737209713     -2.20737527        0.3920475      79.0114335     0.0333881433     -39.8835329     0.0114793161      97.2397614
                   0.00524771159     -111.914997    0.00244224386     -127.930514     0.0618191896      107.307389
                     0.220306046     -95.9572425     0.0137350273      65.6755714      0.041790903     -41.8341234      0.125767331     -161.313212
                       0.3920475      79.0114335      0.774285669     -2.49257404     0.0897595825      -151.67713     0.0333623579     -37.6672671
                    0.0105999582      113.670526    0.00244368606     -175.118809      0.200244044     -5.78750358
                      0.21690332     -97.6863236    0.00189887159     -110.517095    0.00467392098      -115.86864     0.0118508991      106.402832
                    0.0333881433     -39.8835329     0.0897595825      -151.67713      0.775753964     -2.57155026      0.394860899      79.3841118
                      0.12097792     -160.105797     0.0455766732     -62.6781403      0.199860398      -3.4953041
                    0.0636562868      19.1538723    0.00286444595      42.8928464    0.00150978595      48.4602928    0.00686792272     -117.823981
                    0.0114793161      97.2397614     0.0333623579     -37.6672671      0.394860899      79.3841118      0.742289525     -2.24587382
                      0.37287689      79.0230771      0.132253757     -179.197793     0.0612564904      112.806735
                      0.02353761      146.010263    0.00170668158     -70.2123934   0.000977059926      164.548639    0.00192689105      48.6164482
                   0.00524771159     -111.914997     0.0105999582      113.670526       0.12097792     -160.105797       0.37287689      79.0230771
                     0.728772803  -0.00264439286      0.410558919      62.8487959     0.0210954129     -123.221991
                   0.00805458046     -129.909903    0.00822111433      178.431311    0.00162412853     -67.2837088    0.00276621635      38.4293001
                   0.00244224386     -127.930514    0.00244368606     -175.118809     0.0455766732     -62.6781403      0.132253757     -179.197793
                     0.410558919      62.8487959      0.693087827     -34.6973881    0.00892761904     -2.08610393
                     0.891811038      90.5331672    0.00331422571      81.1910175    0.00709078689       14.312218     0.0237548017     -124.323894
                    0.0618191896      107.307389      0.200244044     -5.78750358      0.199860398      -3.4953041     0.0612564904      112.806735
                    0.0210954129     -123.221991    0.00892761904     -2.08610393      0.205947435      -44.786768
4.52                 0.146962198      85.6135753    0.00432795282      27.4158219    0.00636941771      -92.834575     0.0243490283      147.349748
                    0.0647081627       17.574357      0.220192866     -97.2248206      0.216760672     -98.9577121     0.0636056307       17.769377
                    0.0235627835      144.644009    0.00804284031     -131.034763       0.89235349      89.6635836
                   0.00432795282      27.4158219      0.692086759      -35.959058      0.410574462      61.7840289      0.132279258      179.897893
                    0.0441196386      -64.850908     0.0137055873      64.4402058    0.00188162891      -113.24011    0.00287927807       40.398429
                   0.00171248831     -72.9374566    0.00824392133      175.951701    0.00330722543      80.1842852
                   0.00636941771      -92.834575      0.410574462      61.7840289      0.729346833    -0.824190771      0.372161397      78.2477801
                     0.117323179     -161.860966     0.0418216419     -43.0254354     0.0047083539     -117.070875    0.00153870209      47.3715647
                  0.000976362983      163.131826    0.00162976444      -70.008282    0.00710963527      13.2069099
                    0.0243490283      147.349748      0.132279258      179.897893      0.372161397      78.2477801      0.744189988     -3.04146703
                     0.384090578      77.0673514      0.125769813     -162.458066     0.0119218344      105.199584    0.00691624325     -119.374156
                   0.00195650684      47.2418131    0.00277947389      35.9501624     0.0237774585     -125.466743
                    0.0647081627       17.574357     0.0441196386      -64.850908      0.117323179     -161.860966      0.384090578      77.0673514
                     0.736968003     -3.25754543      0.391885521      77.9272274     0.0334847689     -40.9300242     0.0115214209      96.0825697
                   0.00529199221     -113.319159    0.00242698795     -130.745351     0.0618566243      106.170163
                     0.220192866     -97.2248206     0.0137055873      64.4402058     0.0418216419     -43.0254354      0.125769813     -162.458066
                     0.391885521      77.9272274      0.773899266      -3.5824547     0.0901281655     -152.588864     0.0334628507     -38.7168482
                    0.0106889575      112.510921    0.00241800679     -175.616291      0.200210486     -6.84865833
                     0.216760672     -98.9577121    0.00188162891      -113.24011     0.0047083539     -117.070875     0.0119218344      105.199584
                    0.0334847689     -40.9300242     0.0901281655     -152.588864      0.775363193     -3.66512836      0.394731229      78.2959019
                     0.120999893     -161.239072     0.0455271983     -63.8711019      0.199755061     -4.55603802
                    0.0636056307       17.769377    0.00287927807       40.398429    0.00153870209      47.3715647    0.00691624325     -119.374156
                    0.0115214209      96.0825697     0.0334628507     -38.7168482      0.394731229      78.2959019      0.742044682     -3.30321781
                      0.37267629      77.9706506      0.132147061      179.683195     0.0612050065      111.721977
                    0.0235627835      144.644009    0.00171248831     -72.9374566   0.000976362983      163.131826    0.00195650684      47.2418131
                   0.00529199221     -113.319159     0.0106889575      112.510921      0.120999893     -161.239072       0.37267629      77.9706506
                     0.728633953     -1.06095467      0.410205648       61.779998     0.0211110181     -124.416037
                   0.00804284031     -131.034763    0.00824392133      175.951701    0.00162976444      -70.008282    0.00277947389      35.9501624
                   0.00242698795     -130.745351    0.00241800679     -175.616291     0.0455271983     -63.8711019      0.132147061      179.683195
                     0.410205648       61.779998      0.692568078     -35.7692118    0.00894489136     -3.20030074
                      0.89235349      89.6635836    0.00330722543      80.1842852    0.00710963527      13.2069099     0.0237774585     -125.466743
                    0.0618566243      106.170163      0.200210486     -6.84865833      0.199755061     -4.55603802     0.0612050065      111.721977
                    0.0211110181     -124.416037    0.00894489136     -3.20030074      0.203041922     -44.7774596
4.53                 0.143022844      84.5737554     0.0043473825      26.4040041    0.00637071195     -94.1338806     0.0243524263      146.001866
                    0.0646771495       16.247804      0.220091054      -98.492938      0.216629334     -100.229422      0.063559333       16.384084
                    0.0235896508       143.27658     0.0080325241     -132.150112      0.892870061      88.7935042
                    0.0043473825      26.4040041      0.691572576     -37.0296156      0.410218091      60.7141912      0.132183684       178.77712
                    0.0440602499     -66.0167876     0.0136752968      63.2100635    0.00186439848     -115.994845    0.00289416559      37.8928966
                   0.00171809031     -75.6762514    0.00826624959      173.466901    0.00330082613      79.1752497
                   0.00637071195     -94.1338806      0.410218091      60.7141912      0.729193779      -1.8836333      0.371992569      77.1955801
                      0.11733418     -162.964844        0.0418532      -44.216008    0.00474323923      -118.27649    0.00156822813      46.2612926
                  0.000975484829      161.744075    0.00163520347     -72.7465114    0.00712941207      12.1038424
                    0.0243524263      146.001866      0.132183684       178.77712      0.371992569      77.1955801      0.743991328     -4.09864068
                      0.38386797        76.00441      0.125772986     -163.603633     0.0119930136      103.990364    0.00696459334     -120.928384
                    0.0019865446      45.8539972    0.00279278262      33.4603258     0.0238019541     -126.610826
                    0.0646771495       16.247804     0.0440602499     -66.0167876       0.11733418     -162.964844       0.38386797        76.00441
                     0.736722873     -4.30733784      0.391722789      76.8430483     0.0335821805     -41.9788389     0.0115638718      94.9208791
                   0.00533640865     -114.727524    0.00241186118     -133.584448     0.0618995126      105.033169
                     0.220091054      -98.492938     0.0136752968      63.2100635        0.0418532      -44.216008      0.125772986     -163.603633
                     0.391722789      76.8430483      0.773505009      -4.6717033     0.0904993154     -153.505938     0.0335642032     -39.7682105
                    0.0107784182      111.343713    0.00239319797     -176.073931      0.200188034       -7.910619
                     0.216629334     -100.229422    0.00186439848     -115.994845    0.00474323923      -118.27649     0.0119930136      103.990364
                    0.0335821805     -41.9788389     0.0904993154     -153.505938      0.774964179     -4.75805385      0.394600917      77.2076827
                     0.121022474     -162.373054     0.0454762723      -65.063528      0.199660821     -5.61772269
                     0.063559333       16.384084    0.00289416559      37.8928966    0.00156822813      46.2612926    0.00696459334     -120.928384
                    0.0115638718      94.9208791     0.0335642032     -39.7682105      0.394600917      77.2076827      0.741796108     -4.36018516
                     0.372477358       76.918412      0.132041999      178.563878     0.0611573472      110.636898
                    0.0235896508       143.27658    0.00171809031     -75.6762514   0.000975484829      161.744075     0.0019865446      45.8539972
                   0.00533640865     -114.727524     0.0107784182      111.343713      0.121022474     -162.373054      0.372477358       76.918412
                     0.728490083     -2.11875244      0.409855479      60.7111678     0.0211282197     -125.611698
                    0.0080325241     -132.150112    0.00826624959      173.466901    0.00163520347     -72.7465114    0.00279278262      33.4603258
                   0.00241186118     -133.584448    0.00239319797     -176.073931     0.0454762723      -65.063528      0.132041999      178.563878
                     0.409855479      60.7111678      0.692039869     -36.8405147    0.00896300378      -4.3189765
                     0.892870061      88.7935042    0.00330082613      79.1752497    0.00712941207      12.1038424     0.0238019541     -126.610826
                    0.0618995126      105.033169      0.200188034       -7.910619      0.199660821     -5.61772269     0.0611573472      110.636898
                    0.0211282197     -125.611698    0.00896300378     -4.31897651      0.200158947      -44.744467
4.54                 0.139060762      83.5435781    0.00436709691      25.3734633    0.00637236326     -95.4254622      0.024357583      144.653241
                    0.0646515722      14.9213691       0.22000064      -99.761632      0.216509348     -101.501491     0.0635174358      14.9979872
                     0.023618224      141.907917    0.00802365936      -133.25652       0.89336075      87.9229114
                   0.00436709691      25.3734633      0.691050201     -38.0995999      0.409864821      59.6443273      0.132089862      177.655983
                    0.0439999866     -67.1800617     0.0136442718      61.9852443    0.00184722419      -118.78169    0.00290911638       35.376728
                   0.00172349585     -78.4280721      0.008288136      170.977288    0.00329500653      78.1636887
                   0.00637236326     -95.4254622      0.409864821      59.6443273      0.729035744     -2.94256338      0.371825469      76.1435065
                     0.117346719     -164.069597      0.041885626     -45.4058684    0.00477858414     -119.485533    0.00159836666      45.1293891
                  0.000974478092      160.385836    0.00164045321     -75.4976873    0.00715013139      11.0027979
                     0.024357583      144.653241      0.132089862      177.655983      0.371825469      76.1435065       0.74378849     -5.15548521
                     0.383646911      74.9415579      0.125776884     -164.749919     0.0120644307       102.77525    0.00701296618     -122.486588
                   0.00201700465       44.453014    0.00280615088      30.9602487     0.0238282894     -127.756196
                    0.0646515722      14.9213691     0.0439999866     -67.1800617      0.117346719     -164.069597      0.383646911      74.9415579
                     0.736474337     -5.35674464      0.391559404      75.7588994     0.0336804017     -43.0299319     0.0116066717      93.7547667
                   0.00538095856     -116.140014    0.00239691322     -136.447599     0.0619478463      103.896358
                      0.22000064      -99.761632     0.0136442718      61.9852443      0.041885626     -45.4058684      0.125776884     -164.749919
                     0.391559404      75.7588994       0.77310294     -5.76031326     0.0908730457     -154.428329     0.0336664514     -40.8213311
                    0.0108683283      110.168974    0.00236935898     -176.491972      0.200176661     -8.97342929
                     0.216509348     -101.501491    0.00184722419      -118.78169    0.00477858414     -119.485533     0.0120644307       102.77525
                    0.0336804017     -43.0299319     0.0908730457     -154.428329      0.774556966     -5.85031822      0.394470057      76.1194531
                     0.121045699     -163.507749     0.0454240711     -66.2552795      0.199577644     -6.68040242
                    0.0635174358      14.9979872    0.00290911638       35.376728    0.00159836666      45.1293891    0.00701296618     -122.486588
                    0.0116066717      93.7547667     0.0336664514     -40.8213311      0.394470057      76.1194531      0.741543809      -5.4167656
                     0.372280209      75.8663548      0.131938684      177.444252     0.0611135288      109.551429
                     0.023618224      141.907917    0.00172349585     -78.4280721   0.000974478092      160.385836    0.00201700465       44.453014
                   0.00538095856     -116.140014     0.0108683283      110.168974      0.121045699     -163.507749      0.372280209      75.8663548
                     0.728341232     -3.17602511      0.409508587       59.642291     0.0211470148     -126.809027
                   0.00802365936      -133.25652      0.008288136      170.977288    0.00164045321     -75.4976873    0.00280615088      30.9602487
                   0.00239691322     -136.447599    0.00236935898     -176.491972     0.0454240711     -66.2552795      0.131938684      177.444252
                     0.409508587       59.642291      0.691503313     -37.9113014    0.00898195293      -5.4421489
                      0.89336075      87.9229114    0.00329500653      78.1636887    0.00715013139      11.0027979     0.0238282894     -127.756196
                    0.0619478463      103.896358      0.200176661     -8.97342929      0.199577644     -6.68040242     0.0611135288      109.551429
                    0.0211470148     -126.809027    0.00898195293      -5.4421489      0.197300238     -44.6867753
4.55                 0.135075838      82.5236051    0.00438712826      24.3243605    0.00637441962     -96.7095241     0.0243645136      143.303815
                    0.0646314544      13.5949861      0.219921652      -101.03094      0.216400752     -102.773956     0.0634799793      13.6110795
                    0.0236485143       140.53796    0.00801627076     -134.354545      0.893825539      87.0517876
                   0.00438712826      24.3243605      0.690519739     -39.1690153      0.409514824      58.5744233      0.131997897      176.534472
                    0.0439390342     -68.3406859     0.0136126282      60.7658258    0.00183015092     -121.601019    0.00292413856      32.8503973
                    0.0017287141     -81.1922261    0.00830961775      168.483222    0.00328974596      77.1493908
                   0.00637441962     -96.7095241      0.409514824      58.5744233      0.728872763     -4.00096824      0.371660203      75.0915535
                      0.11736081     -165.175239     0.0419189677      -46.595045    0.00481439582     -120.698049    0.00162911955      43.9757877
                  0.000973394545      159.057283    0.00164552214     -78.2611138    0.00717180702      9.90356154
                    0.0243645136      143.303815      0.131997897      176.534472      0.371660203      75.0915535      0.743581474     -6.21199146
                     0.383427479      73.8787934      0.125781543     -165.896932     0.0121360798       101.55432     0.0070613551     -124.048693
                   0.00204788702      43.0388845    0.00281958725      28.4503844     0.0238564656     -128.902905
                    0.0646314544      13.5949861     0.0439390342     -68.3406859       0.11736081     -165.175239      0.383427479      73.8787934
                     0.736222406     -6.40575825      0.391395461      74.6747831     0.0337794567     -44.0832589     0.0116498239        92.58431
                   0.00542563985     -117.556549    0.00238219379     -139.334567     0.0620016168      102.759683
                     0.219921652      -101.03094     0.0136126282      60.7658258     0.0419189677      -46.595045      0.125781543     -165.896932
                     0.391395461      74.6747831      0.772693098     -6.84827833     0.0912493692     -155.356016     0.0337696313     -41.8761886
                    0.0109586759      108.986778     0.0023465871     -176.870876      0.200176335     -10.0371326
                     0.216400752     -102.773956    0.00183015092     -121.601019    0.00481439582     -120.698049     0.0121360798       101.55432
                    0.0337794567     -44.0832589     0.0912493692     -155.356016      0.774141597     -6.94191334      0.394338739      75.0312119
                     0.121069604     -164.643165     0.0453707699     -67.4462216      0.199505493     -7.74412116
                    0.0634799793      13.6110795    0.00292413856      32.8503973    0.00162911955      43.9757877     0.0070613551     -124.048693
                    0.0116498239        92.58431     0.0337696313     -41.8761886      0.394338739      75.0312119      0.741287785     -6.47294915
                      0.37208495      74.8144724      0.131837229      176.324307     0.0610735664      108.465501
                    0.0236485143       140.53796     0.0017287141     -81.1922261   0.000973394545      159.057283    0.00204788702      43.0388845
                   0.00542563985     -117.556549     0.0109586759      108.986778      0.121069604     -164.643165       0.37208495      74.8144724
                     0.728187438      -4.2327604      0.409165144      58.5733527     0.0211674007     -128.008079
                   0.00801627076     -134.354545    0.00830961775      168.483222    0.00164552214     -78.2611138    0.00281958725      28.4503844
                   0.00238219379     -139.334567     0.0023465871     -176.870876     0.0453707699     -67.4462216      0.131837229      176.324307
                     0.409165144      58.5733527      0.690958514      -38.981577    0.00900173554     -6.56983629
                     0.893825539      87.0517876    0.00328974596      77.1493908    0.00717180702      9.90356154     0.0238564656     -128.902905
                    0.0620016168      102.759683      0.200176335     -10.0371326      0.199505493     -7.74412116     0.0610735664      108.465501
                    0.0211674007     -128.008079    0.00900173554     -6.56983629      0.194467663     -44.6033354
4.56                 0.131067949      81.5144917    0.00440750688      23.2568998    0.00637692731      -97.986281     0.0243732324      141.953528
                    0.0646168175      12.2685888       0.21985411     -102.300899       0.21630358     -104.046853     0.0634470021      12.2233535
                    0.0236805326       139.16665     0.0080103804     -135.444734      0.894264393      86.1801145
                   0.00440750688      23.2568998      0.689981283     -40.2378672      0.409168266      57.5044647      0.131907892      175.412576
                    0.0438775761     -69.4986227     0.0135804821       59.551863    0.00181322448     -124.453183    0.00293924056      30.3143724
                   0.00173375514     -83.9680368    0.00833073214      165.985044    0.00328502429      76.1321555
                   0.00637692731      -97.986281      0.409168266      57.5044647      0.728704872     -5.05883543      0.371496873      74.0397153
                     0.117376468     -166.281781     0.0419532717     -47.7835679    0.00485068153     -121.914086    0.00166048792      42.8004436
                  0.000972284576      157.758329    0.00165041956     -81.0361112     0.0071944525       8.8059212
                    0.0243732324      141.953528      0.131907892      175.412576      0.371496873      74.0397153      0.743370277     -7.26815063
                     0.383209749      72.8161146      0.125786998      -167.04468     0.0122079554      100.327656    0.00710975357     -125.614622
                   0.00207919152      41.6116374    0.00283310052      25.9311796     0.0238864837     -130.051006
                    0.0646168175      12.2685888     0.0438775761     -69.4986227      0.117376468     -166.281781      0.383209749      72.8161146